VARIABLES="X" "Y" "Vx" "Vy" 
Zone T = "single_2412_2412_ Streamlines" 
I=35, J=1, K=1 
-0.500000, -0.342300, 0.980061, 0.003490 
-0.486577, -0.342300, 0.979733, 0.003106 
-0.473154, -0.342300, 0.979406, 0.002697 
-0.459732, -0.342300, 0.979082, 0.002261 
-0.446309, -0.342300, 0.978762, 0.001798 
-0.432886, -0.342300, 0.978447, 0.001305 
-0.419463, -0.342300, 0.978139, 0.000781 
-0.406040, -0.342300, 0.977841, 0.000225 
-0.392617, -0.342300, 0.977554, -0.000364 
-0.379195, -0.342300, 0.977280, -0.000989 
-0.365772, -0.342300, 0.977024, -0.001650 
-0.352349, -0.342300, 0.976787, -0.002348 
-0.338926, -0.342300, 0.976573, -0.003084 
-0.325503, -0.342300, 0.976387, -0.003860 
-0.312081, -0.342300, 0.976231, -0.004675 
-0.298658, -0.342300, 0.976111, -0.005530 
-0.285235, -0.342300, 0.976031, -0.006426 
-0.271812, -0.342300, 0.975997, -0.007360 
-0.258389, -0.342300, 0.976014, -0.008333 
-0.244966, -0.342300, 0.976088, -0.009342 
-0.231544, -0.342300, 0.976225, -0.010385 
-0.218121, -0.342300, 0.976432, -0.011459 
-0.204698, -0.342300, 0.976715, -0.012560 
-0.191275, -0.342300, 0.977079, -0.013682 
-0.177852, -0.342300, 0.977532, -0.014819 
-0.164430, -0.342300, 0.978079, -0.015964 
-0.151007, -0.342300, 0.978725, -0.017108 
-0.137584, -0.342300, 0.979475, -0.018242 
-0.124161, -0.342300, 0.980333, -0.019354 
-0.110738, -0.342300, 0.981300, -0.020433 
-0.097315, -0.342300, 0.982377, -0.021466 
-0.083893, -0.342300, 0.983564, -0.022439 
-0.070470, -0.342300, 0.984856, -0.023340 
-0.057047, -0.342300, 0.986250, -0.024154 
-0.043624, -0.342300, 0.987739, -0.024867 
-0.030201, -0.342300, 0.989312, -0.025468 
-0.016779, -0.342300, 0.990958, -0.025944 
-0.003356, -0.342300, 0.992665, -0.026286 
0.010067, -0.342300, 0.994417, -0.026485 
0.023490, -0.342300, 0.996200, -0.026535 
0.036913, -0.342300, 0.997995, -0.026432 
0.050336, -0.342300, 0.999785, -0.026177 
0.063758, -0.342300, 1.001554, -0.025769 
0.077181, -0.342300, 1.003285, -0.025212 
0.090604, -0.342300, 1.004963, -0.024514 
0.104027, -0.342300, 1.006572, -0.023681 
0.117450, -0.342300, 1.008101, -0.022723 
0.130872, -0.342300, 1.009538, -0.021651 
0.144295, -0.342300, 1.010873, -0.020478 
0.157718, -0.342300, 1.012101, -0.019215 
0.171141, -0.342300, 1.013214, -0.017877 
0.184564, -0.342300, 1.014211, -0.016475 
0.197987, -0.342300, 1.015088, -0.015021 
0.211409, -0.342300, 1.015845, -0.013530 
0.224832, -0.342300, 1.016484, -0.012011 
0.238255, -0.342300, 1.017006, -0.010475 
0.251678, -0.342300, 1.017414, -0.008933 
0.265101, -0.342300, 1.017712, -0.007393 
0.278523, -0.342300, 1.017904, -0.005863 
0.291946, -0.342300, 1.017995, -0.004351 
0.305369, -0.342300, 1.017991, -0.002862 
0.318792, -0.342300, 1.017895, -0.001402 
0.332215, -0.342300, 1.017714, 0.000025 
0.345638, -0.342300, 1.017453, 0.001413 
0.359060, -0.342300, 1.017116, 0.002761 
0.372483, -0.342300, 1.016709, 0.004065 
0.385906, -0.342300, 1.016237, 0.005322 
0.399329, -0.342300, 1.015704, 0.006532 
0.412752, -0.342300, 1.015115, 0.007692 
0.426174, -0.342300, 1.014474, 0.008801 
0.439597, -0.342300, 1.013784, 0.009859 
0.453020, -0.342300, 1.013051, 0.010864 
0.466443, -0.342300, 1.012277, 0.011816 
0.479866, -0.342300, 1.011465, 0.012715 
0.493289, -0.342300, 1.010620, 0.013560 
0.506711, -0.342300, 1.009744, 0.014351 
0.520134, -0.342300, 1.008840, 0.015088 
0.533557, -0.342300, 1.007911, 0.015771 
0.546980, -0.342300, 1.006960, 0.016401 
0.560403, -0.342300, 1.005989, 0.016976 
0.573826, -0.342300, 1.005000, 0.017498 
0.587248, -0.342300, 1.003997, 0.017966 
0.600671, -0.342300, 1.002981, 0.018381 
0.614094, -0.342300, 1.001955, 0.018742 
0.627517, -0.342300, 1.000921, 0.019051 
0.640940, -0.342300, 0.999881, 0.019306 
0.654362, -0.342300, 0.998837, 0.019510 
0.667785, -0.342300, 0.997792, 0.019660 
0.681208, -0.342300, 0.996747, 0.019759 
0.694631, -0.342300, 0.995705, 0.019806 
0.708054, -0.342300, 0.994668, 0.019801 
0.721477, -0.342300, 0.993638, 0.019745 
0.734899, -0.342300, 0.992617, 0.019638 
0.748322, -0.342300, 0.991608, 0.019481 
0.761745, -0.342300, 0.990613, 0.019273 
0.775168, -0.342300, 0.989635, 0.019016 
0.788591, -0.342300, 0.988676, 0.018710 
0.802013, -0.342300, 0.987738, 0.018356 
0.815436, -0.342300, 0.986825, 0.017955 
0.828859, -0.342300, 0.985939, 0.017507 
0.842282, -0.342300, 0.985083, 0.017015 
0.855705, -0.342300, 0.984260, 0.016481 
0.869128, -0.342300, 0.983472, 0.015905 
0.882550, -0.342300, 0.982722, 0.015290 
0.895973, -0.342300, 0.982014, 0.014639 
0.909396, -0.342300, 0.981348, 0.013955 
0.922819, -0.342300, 0.980729, 0.013240 
0.936242, -0.342300, 0.980156, 0.012498 
0.949664, -0.342300, 0.979634, 0.011732 
0.963087, -0.342300, 0.979162, 0.010946 
0.976510, -0.342300, 0.978741, 0.010145 
0.989933, -0.342300, 0.978374, 0.009332 
1.003356, -0.342300, 0.978058, 0.008512 
1.016779, -0.342300, 0.977795, 0.007688 
1.030201, -0.342300, 0.977584, 0.006866 
1.043624, -0.342300, 0.977423, 0.006048 
1.057047, -0.342300, 0.977311, 0.005238 
1.070470, -0.342300, 0.977246, 0.004440 
1.083893, -0.342300, 0.977225, 0.003658 
1.097315, -0.342300, 0.977247, 0.002894 
1.110738, -0.342300, 0.977308, 0.002151 
1.124161, -0.342300, 0.977406, 0.001430 
1.137584, -0.342300, 0.977538, 0.000734 
1.151007, -0.342300, 0.977701, 0.000064 
1.164430, -0.342300, 0.977891, -0.000579 
1.177852, -0.342300, 0.978106, -0.001194 
1.191275, -0.342300, 0.978343, -0.001780 
1.204698, -0.342300, 0.978599, -0.002339 
1.218121, -0.342300, 0.978872, -0.002868 
1.231544, -0.342300, 0.979159, -0.003370 
1.244966, -0.342300, 0.979457, -0.003844 
1.258389, -0.342300, 0.979766, -0.004291 
1.271812, -0.342300, 0.980082, -0.004712 
1.285235, -0.342300, 0.980404, -0.005107 
1.298658, -0.342300, 0.980730, -0.005478 
1.312081, -0.342300, 0.981060, -0.005825 
1.325503, -0.342300, 0.981391, -0.006150 
1.338926, -0.342300, 0.981723, -0.006453 
1.352349, -0.342300, 0.982054, -0.006735 
1.365772, -0.342300, 0.982384, -0.006998 
1.379195, -0.342300, 0.982712, -0.007243 
1.392617, -0.342300, 0.983037, -0.007469 
1.406040, -0.342300, 0.983358, -0.007679 
1.419463, -0.342300, 0.983676, -0.007874 
1.432886, -0.342300, 0.983990, -0.008053 
1.446309, -0.342300, 0.984298, -0.008219 
1.459732, -0.342300, 0.984602, -0.008371 
1.473154, -0.342300, 0.984901, -0.008511 
1.486577, -0.342300, 0.985195, -0.008639 
1.500000, -0.342300, 0.985483, -0.008756 
-0.500000, -0.337460, 0.979927, 0.003609 
-0.486577, -0.337460, 0.979590, 0.003225 
-0.473154, -0.337460, 0.979254, 0.002816 
-0.459732, -0.337460, 0.978920, 0.002379 
-0.446309, -0.337460, 0.978589, 0.001914 
-0.432886, -0.337460, 0.978264, 0.001419 
-0.419463, -0.337460, 0.977944, 0.000893 
-0.406040, -0.337460, 0.977634, 0.000333 
-0.392617, -0.337460, 0.977334, -0.000261 
-0.379195, -0.337460, 0.977048, -0.000891 
-0.365772, -0.337460, 0.976778, -0.001558 
-0.352349, -0.337460, 0.976527, -0.002264 
-0.338926, -0.337460, 0.976299, -0.003009 
-0.325503, -0.337460, 0.976098, -0.003795 
-0.312081, -0.337460, 0.975927, -0.004622 
-0.298658, -0.337460, 0.975793, -0.005491 
-0.285235, -0.337460, 0.975698, -0.006402 
-0.271812, -0.337460, 0.975650, -0.007354 
-0.258389, -0.337460, 0.975653, -0.008346 
-0.244966, -0.337460, 0.975714, -0.009377 
-0.231544, -0.337460, 0.975839, -0.010445 
-0.218121, -0.337460, 0.976035, -0.011545 
-0.204698, -0.337460, 0.976308, -0.012675 
-0.191275, -0.337460, 0.976666, -0.013828 
-0.177852, -0.337460, 0.977114, -0.014998 
-0.164430, -0.337460, 0.977659, -0.016179 
-0.151007, -0.337460, 0.978307, -0.017360 
-0.137584, -0.337460, 0.979063, -0.018533 
-0.124161, -0.337460, 0.979930, -0.019685 
-0.110738, -0.337460, 0.980911, -0.020804 
-0.097315, -0.337460, 0.982007, -0.021878 
-0.083893, -0.337460, 0.983218, -0.022891 
-0.070470, -0.337460, 0.984540, -0.023830 
-0.057047, -0.337460, 0.985968, -0.024680 
-0.043624, -0.337460, 0.987495, -0.025427 
-0.030201, -0.337460, 0.989112, -0.026057 
-0.016779, -0.337460, 0.990806, -0.026558 
-0.003356, -0.337460, 0.992564, -0.026920 
0.010067, -0.337460, 0.994370, -0.027133 
0.023490, -0.337460, 0.996208, -0.027191 
0.036913, -0.337460, 0.998059, -0.027090 
0.050336, -0.337460, 0.999906, -0.026829 
0.063758, -0.337460, 1.001731, -0.026410 
0.077181, -0.337460, 1.003516, -0.025837 
0.090604, -0.337460, 1.005244, -0.025116 
0.104027, -0.337460, 1.006901, -0.024255 
0.117450, -0.337460, 1.008474, -0.023265 
0.130872, -0.337460, 1.009950, -0.022158 
0.144295, -0.337460, 1.011320, -0.020946 
0.157718, -0.337460, 1.012578, -0.019643 
0.171141, -0.337460, 1.013717, -0.018261 
0.184564, -0.337460, 1.014734, -0.016816 
0.197987, -0.337460, 1.015627, -0.015319 
0.211409, -0.337460, 1.016396, -0.013783 
0.224832, -0.337460, 1.017043, -0.012221 
0.238255, -0.337460, 1.017569, -0.010643 
0.251678, -0.337460, 1.017977, -0.009060 
0.265101, -0.337460, 1.018273, -0.007480 
0.278523, -0.337460, 1.018460, -0.005913 
0.291946, -0.337460, 1.018543, -0.004364 
0.305369, -0.337460, 1.018529, -0.002841 
0.318792, -0.337460, 1.018421, -0.001349 
0.332215, -0.337460, 1.018227, 0.000107 
0.345638, -0.337460, 1.017951, 0.001524 
0.359060, -0.337460, 1.017599, 0.002898 
0.372483, -0.337460, 1.017175, 0.004226 
0.385906, -0.337460, 1.016686, 0.005507 
0.399329, -0.337460, 1.016135, 0.006738 
0.412752, -0.337460, 1.015528, 0.007917 
0.426174, -0.337460, 1.014868, 0.009045 
0.439597, -0.337460, 1.014159, 0.010119 
0.453020, -0.337460, 1.013406, 0.011140 
0.466443, -0.337460, 1.012613, 0.012106 
0.479866, -0.337460, 1.011782, 0.013017 
0.493289, -0.337460, 1.010917, 0.013874 
0.506711, -0.337460, 1.010021, 0.014676 
0.520134, -0.337460, 1.009098, 0.015422 
0.533557, -0.337460, 1.008149, 0.016114 
0.546980, -0.337460, 1.007178, 0.016751 
0.560403, -0.337460, 1.006188, 0.017333 
0.573826, -0.337460, 1.005180, 0.017860 
0.587248, -0.337460, 1.004157, 0.018333 
0.600671, -0.337460, 1.003122, 0.018752 
0.614094, -0.337460, 1.002076, 0.019117 
0.627517, -0.337460, 1.001023, 0.019428 
0.640940, -0.337460, 0.999964, 0.019686 
0.654362, -0.337460, 0.998901, 0.019890 
0.667785, -0.337460, 0.997837, 0.020041 
0.681208, -0.337460, 0.996774, 0.020139 
0.694631, -0.337460, 0.995713, 0.020184 
0.708054, -0.337460, 0.994657, 0.020178 
0.721477, -0.337460, 0.993608, 0.020119 
0.734899, -0.337460, 0.992569, 0.020008 
0.748322, -0.337460, 0.991542, 0.019846 
0.761745, -0.337460, 0.990529, 0.019633 
0.775168, -0.337460, 0.989532, 0.019369 
0.788591, -0.337460, 0.988555, 0.019055 
0.802013, -0.337460, 0.987600, 0.018693 
0.815436, -0.337460, 0.986670, 0.018282 
0.828859, -0.337460, 0.985768, 0.017824 
0.842282, -0.337460, 0.984896, 0.017321 
0.855705, -0.337460, 0.984057, 0.016774 
0.869128, -0.337460, 0.983255, 0.016185 
0.882550, -0.337460, 0.982491, 0.015556 
0.895973, -0.337460, 0.981770, 0.014889 
0.909396, -0.337460, 0.981093, 0.014189 
0.922819, -0.337460, 0.980462, 0.013457 
0.936242, -0.337460, 0.979881, 0.012697 
0.949664, -0.337460, 0.979350, 0.011913 
0.963087, -0.337460, 0.978872, 0.011108 
0.976510, -0.337460, 0.978447, 0.010288 
0.989933, -0.337460, 0.978075, 0.009456 
1.003356, -0.337460, 0.977758, 0.008616 
1.016779, -0.337460, 0.977495, 0.007774 
1.030201, -0.337460, 0.977284, 0.006932 
1.043624, -0.337460, 0.977126, 0.006096 
1.057047, -0.337460, 0.977018, 0.005269 
1.070470, -0.337460, 0.976958, 0.004455 
1.083893, -0.337460, 0.976943, 0.003657 
1.097315, -0.337460, 0.976973, 0.002878 
1.110738, -0.337460, 0.977042, 0.002120 
1.124161, -0.337460, 0.977149, 0.001387 
1.137584, -0.337460, 0.977290, 0.000679 
1.151007, -0.337460, 0.977462, -0.000002 
1.164430, -0.337460, 0.977663, -0.000654 
1.177852, -0.337460, 0.977888, -0.001277 
1.191275, -0.337460, 0.978135, -0.001871 
1.204698, -0.337460, 0.978402, -0.002436 
1.218121, -0.337460, 0.978685, -0.002971 
1.231544, -0.337460, 0.978982, -0.003478 
1.244966, -0.337460, 0.979291, -0.003956 
1.258389, -0.337460, 0.979609, -0.004406 
1.271812, -0.337460, 0.979934, -0.004829 
1.285235, -0.337460, 0.980265, -0.005226 
1.298658, -0.337460, 0.980601, -0.005598 
1.312081, -0.337460, 0.980939, -0.005946 
1.325503, -0.337460, 0.981278, -0.006271 
1.338926, -0.337460, 0.981617, -0.006574 
1.352349, -0.337460, 0.981956, -0.006856 
1.365772, -0.337460, 0.982293, -0.007118 
1.379195, -0.337460, 0.982627, -0.007361 
1.392617, -0.337460, 0.982958, -0.007587 
1.406040, -0.337460, 0.983286, -0.007796 
1.419463, -0.337460, 0.983609, -0.007988 
1.432886, -0.337460, 0.983928, -0.008166 
1.446309, -0.337460, 0.984241, -0.008330 
1.459732, -0.337460, 0.984550, -0.008480 
1.473154, -0.337460, 0.984853, -0.008618 
1.486577, -0.337460, 0.985151, -0.008745 
1.500000, -0.337460, 0.985443, -0.008860 
-0.500000, -0.332621, 0.979793, 0.003732 
-0.486577, -0.332621, 0.979447, 0.003348 
-0.473154, -0.332621, 0.979101, 0.002939 
-0.459732, -0.332621, 0.978757, 0.002501 
-0.446309, -0.332621, 0.978416, 0.002035 
-0.432886, -0.332621, 0.978079, 0.001538 
-0.419463, -0.332621, 0.977748, 0.001008 
-0.406040, -0.332621, 0.977425, 0.000445 
-0.392617, -0.332621, 0.977113, -0.000153 
-0.379195, -0.332621, 0.976813, -0.000788 
-0.365772, -0.332621, 0.976529, -0.001461 
-0.352349, -0.332621, 0.976264, -0.002175 
-0.338926, -0.332621, 0.976021, -0.002929 
-0.325503, -0.332621, 0.975805, -0.003725 
-0.312081, -0.332621, 0.975619, -0.004564 
-0.298658, -0.332621, 0.975469, -0.005447 
-0.285235, -0.332621, 0.975359, -0.006373 
-0.271812, -0.332621, 0.975296, -0.007343 
-0.258389, -0.332621, 0.975284, -0.008355 
-0.244966, -0.332621, 0.975331, -0.009408 
-0.231544, -0.332621, 0.975443, -0.010500 
-0.218121, -0.332621, 0.975627, -0.011628 
-0.204698, -0.332621, 0.975891, -0.012786 
-0.191275, -0.332621, 0.976240, -0.013972 
-0.177852, -0.332621, 0.976683, -0.015176 
-0.164430, -0.332621, 0.977226, -0.016393 
-0.151007, -0.332621, 0.977875, -0.017613 
-0.137584, -0.332621, 0.978636, -0.018826 
-0.124161, -0.332621, 0.979512, -0.020020 
-0.110738, -0.332621, 0.980507, -0.021182 
-0.097315, -0.332621, 0.981623, -0.022298 
-0.083893, -0.332621, 0.982858, -0.023353 
-0.070470, -0.332621, 0.984209, -0.024332 
-0.057047, -0.332621, 0.985673, -0.025221 
-0.043624, -0.332621, 0.987240, -0.026002 
-0.030201, -0.332621, 0.988902, -0.026664 
-0.016779, -0.332621, 0.990646, -0.027191 
-0.003356, -0.332621, 0.992457, -0.027573 
0.010067, -0.332621, 0.994319, -0.027801 
0.023490, -0.332621, 0.996215, -0.027867 
0.036913, -0.332621, 0.998125, -0.027768 
0.050336, -0.332621, 1.000030, -0.027503 
0.063758, -0.332621, 1.001913, -0.027072 
0.077181, -0.332621, 1.003753, -0.026481 
0.090604, -0.332621, 1.005534, -0.025736 
0.104027, -0.332621, 1.007241, -0.024847 
0.117450, -0.332621, 1.008859, -0.023823 
0.130872, -0.332621, 1.010376, -0.022679 
0.144295, -0.332621, 1.011782, -0.021426 
0.157718, -0.332621, 1.013071, -0.020080 
0.171141, -0.332621, 1.014236, -0.018654 
0.184564, -0.332621, 1.015273, -0.017163 
0.197987, -0.332621, 1.016183, -0.015621 
0.211409, -0.332621, 1.016964, -0.014040 
0.224832, -0.332621, 1.017617, -0.012433 
0.238255, -0.332621, 1.018147, -0.010812 
0.251678, -0.332621, 1.018555, -0.009186 
0.265101, -0.332621, 1.018848, -0.007566 
0.278523, -0.332621, 1.019028, -0.005960 
0.291946, -0.332621, 1.019104, -0.004375 
0.305369, -0.332621, 1.019078, -0.002817 
0.318792, -0.332621, 1.018959, -0.001292 
0.332215, -0.332621, 1.018751, 0.000195 
0.345638, -0.332621, 1.018459, 0.001640 
0.359060, -0.332621, 1.018091, 0.003041 
0.372483, -0.332621, 1.017650, 0.004394 
0.385906, -0.332621, 1.017143, 0.005698 
0.399329, -0.332621, 1.016574, 0.006950 
0.412752, -0.332621, 1.015947, 0.008150 
0.426174, -0.332621, 1.015268, 0.009295 
0.439597, -0.332621, 1.014540, 0.010386 
0.453020, -0.332621, 1.013767, 0.011422 
0.466443, -0.332621, 1.012954, 0.012402 
0.479866, -0.332621, 1.012103, 0.013327 
0.493289, -0.332621, 1.011218, 0.014195 
0.506711, -0.332621, 1.010302, 0.015007 
0.520134, -0.332621, 1.009359, 0.015764 
0.533557, -0.332621, 1.008390, 0.016464 
0.546980, -0.332621, 1.007399, 0.017108 
0.560403, -0.332621, 1.006389, 0.017697 
0.573826, -0.332621, 1.005361, 0.018230 
0.587248, -0.332621, 1.004319, 0.018708 
0.600671, -0.332621, 1.003264, 0.019131 
0.614094, -0.332621, 1.002199, 0.019499 
0.627517, -0.332621, 1.001126, 0.019812 
0.640940, -0.332621, 1.000048, 0.020072 
0.654362, -0.332621, 0.998965, 0.020277 
0.667785, -0.332621, 0.997882, 0.020428 
0.681208, -0.332621, 0.996799, 0.020525 
0.694631, -0.332621, 0.995719, 0.020570 
0.708054, -0.332621, 0.994645, 0.020560 
0.721477, -0.332621, 0.993577, 0.020498 
0.734899, -0.332621, 0.992519, 0.020384 
0.748322, -0.332621, 0.991473, 0.020217 
0.761745, -0.332621, 0.990441, 0.019998 
0.775168, -0.332621, 0.989427, 0.019728 
0.788591, -0.332621, 0.988432, 0.019407 
0.802013, -0.332621, 0.987459, 0.019036 
0.815436, -0.332621, 0.986512, 0.018616 
0.828859, -0.332621, 0.985592, 0.018147 
0.842282, -0.332621, 0.984704, 0.017633 
0.855705, -0.332621, 0.983850, 0.017073 
0.869128, -0.332621, 0.983032, 0.016470 
0.882550, -0.332621, 0.982255, 0.015826 
0.895973, -0.332621, 0.981520, 0.015144 
0.909396, -0.332621, 0.980831, 0.014427 
0.922819, -0.332621, 0.980190, 0.013677 
0.936242, -0.332621, 0.979599, 0.012899 
0.949664, -0.332621, 0.979060, 0.012096 
0.963087, -0.332621, 0.978575, 0.011272 
0.976510, -0.332621, 0.978145, 0.010432 
0.989933, -0.332621, 0.977770, 0.009581 
1.003356, -0.332621, 0.977451, 0.008721 
1.016779, -0.332621, 0.977187, 0.007859 
1.030201, -0.332621, 0.976978, 0.006998 
1.043624, -0.332621, 0.976823, 0.006143 
1.057047, -0.332621, 0.976718, 0.005298 
1.070470, -0.332621, 0.976664, 0.004467 
1.083893, -0.332621, 0.976656, 0.003652 
1.097315, -0.332621, 0.976693, 0.002858 
1.110738, -0.332621, 0.976771, 0.002087 
1.124161, -0.332621, 0.976887, 0.001340 
1.137584, -0.332621, 0.977038, 0.000621 
1.151007, -0.332621, 0.977220, -0.000071 
1.164430, -0.332621, 0.977431, -0.000733 
1.177852, -0.332621, 0.977667, -0.001365 
1.191275, -0.332621, 0.977925, -0.001966 
1.204698, -0.332621, 0.978203, -0.002537 
1.218121, -0.332621, 0.978496, -0.003078 
1.231544, -0.332621, 0.978804, -0.003589 
1.244966, -0.332621, 0.979123, -0.004070 
1.258389, -0.332621, 0.979451, -0.004524 
1.271812, -0.332621, 0.979786, -0.004949 
1.285235, -0.332621, 0.980127, -0.005348 
1.298658, -0.332621, 0.980471, -0.005721 
1.312081, -0.332621, 0.980817, -0.006070 
1.325503, -0.332621, 0.981165, -0.006395 
1.338926, -0.332621, 0.981512, -0.006698 
1.352349, -0.332621, 0.981858, -0.006979 
1.365772, -0.332621, 0.982202, -0.007240 
1.379195, -0.332621, 0.982543, -0.007483 
1.392617, -0.332621, 0.982880, -0.007707 
1.406040, -0.332621, 0.983214, -0.007914 
1.419463, -0.332621, 0.983543, -0.008105 
1.432886, -0.332621, 0.983867, -0.008281 
1.446309, -0.332621, 0.984185, -0.008443 
1.459732, -0.332621, 0.984498, -0.008592 
1.473154, -0.332621, 0.984806, -0.008728 
1.486577, -0.332621, 0.985108, -0.008852 
1.500000, -0.332621, 0.985403, -0.008965 
-0.500000, -0.327781, 0.979659, 0.003859 
-0.486577, -0.327781, 0.979304, 0.003475 
-0.473154, -0.327781, 0.978949, 0.003065 
-0.459732, -0.327781, 0.978594, 0.002627 
-0.446309, -0.327781, 0.978242, 0.002159 
-0.432886, -0.327781, 0.977894, 0.001660 
-0.419463, -0.327781, 0.977551, 0.001129 
-0.406040, -0.327781, 0.977215, 0.000562 
-0.392617, -0.327781, 0.976890, -0.000040 
-0.379195, -0.327781, 0.976576, -0.000680 
-0.365772, -0.327781, 0.976278, -0.001360 
-0.352349, -0.327781, 0.975998, -0.002080 
-0.338926, -0.327781, 0.975740, -0.002843 
-0.325503, -0.327781, 0.975508, -0.003650 
-0.312081, -0.327781, 0.975307, -0.004501 
-0.298658, -0.327781, 0.975140, -0.005397 
-0.285235, -0.327781, 0.975015, -0.006339 
-0.271812, -0.327781, 0.974935, -0.007326 
-0.258389, -0.327781, 0.974908, -0.008358 
-0.244966, -0.327781, 0.974940, -0.009434 
-0.231544, -0.327781, 0.975038, -0.010551 
-0.218121, -0.327781, 0.975210, -0.011706 
-0.204698, -0.327781, 0.975462, -0.012895 
-0.191275, -0.327781, 0.975803, -0.014113 
-0.177852, -0.327781, 0.976240, -0.015353 
-0.164430, -0.327781, 0.976779, -0.016608 
-0.151007, -0.327781, 0.977429, -0.017868 
-0.137584, -0.327781, 0.978194, -0.019122 
-0.124161, -0.327781, 0.979079, -0.020359 
-0.110738, -0.327781, 0.980088, -0.021565 
-0.097315, -0.327781, 0.981223, -0.022725 
-0.083893, -0.327781, 0.982482, -0.023824 
-0.070470, -0.327781, 0.983864, -0.024846 
-0.057047, -0.327781, 0.985364, -0.025774 
-0.043624, -0.327781, 0.986973, -0.026593 
-0.030201, -0.327781, 0.988682, -0.027287 
-0.016779, -0.327781, 0.990477, -0.027842 
-0.003356, -0.327781, 0.992343, -0.028246 
0.010067, -0.327781, 0.994264, -0.028490 
0.023490, -0.327781, 0.996219, -0.028565 
0.036913, -0.327781, 0.998191, -0.028468 
0.050336, -0.327781, 1.000158, -0.028198 
0.063758, -0.327781, 1.002100, -0.027755 
0.077181, -0.327781, 1.003998, -0.027145 
0.090604, -0.327781, 1.005835, -0.026375 
0.104027, -0.327781, 1.007592, -0.025456 
0.117450, -0.327781, 1.009257, -0.024397 
0.130872, -0.327781, 1.010816, -0.023214 
0.144295, -0.327781, 1.012259, -0.021919 
0.157718, -0.327781, 1.013579, -0.020528 
0.171141, -0.327781, 1.014771, -0.019056 
0.184564, -0.327781, 1.015830, -0.017518 
0.197987, -0.327781, 1.016755, -0.015928 
0.211409, -0.327781, 1.017547, -0.014300 
0.224832, -0.327781, 1.018208, -0.012647 
0.238255, -0.327781, 1.018740, -0.010981 
0.251678, -0.327781, 1.019148, -0.009312 
0.265101, -0.327781, 1.019437, -0.007650 
0.278523, -0.327781, 1.019611, -0.006004 
0.291946, -0.327781, 1.019677, -0.004382 
0.305369, -0.327781, 1.019641, -0.002788 
0.318792, -0.327781, 1.019508, -0.001230 
0.332215, -0.327781, 1.019285, 0.000288 
0.345638, -0.327781, 1.018978, 0.001763 
0.359060, -0.327781, 1.018592, 0.003190 
0.372483, -0.327781, 1.018134, 0.004569 
0.385906, -0.327781, 1.017608, 0.005896 
0.399329, -0.327781, 1.017019, 0.007169 
0.412752, -0.327781, 1.016373, 0.008389 
0.426174, -0.327781, 1.015674, 0.009553 
0.439597, -0.327781, 1.014926, 0.010661 
0.453020, -0.327781, 1.014133, 0.011712 
0.466443, -0.327781, 1.013300, 0.012706 
0.479866, -0.327781, 1.012428, 0.013644 
0.493289, -0.327781, 1.011523, 0.014524 
0.506711, -0.327781, 1.010587, 0.015346 
0.520134, -0.327781, 1.009623, 0.016112 
0.533557, -0.327781, 1.008634, 0.016821 
0.546980, -0.327781, 1.007623, 0.017473 
0.560403, -0.327781, 1.006592, 0.018068 
0.573826, -0.327781, 1.005544, 0.018607 
0.587248, -0.327781, 1.004482, 0.019090 
0.600671, -0.327781, 1.003407, 0.019517 
0.614094, -0.327781, 1.002322, 0.019888 
0.627517, -0.327781, 1.001230, 0.020204 
0.640940, -0.327781, 1.000131, 0.020465 
0.654362, -0.327781, 0.999030, 0.020671 
0.667785, -0.327781, 0.997927, 0.020822 
0.681208, -0.327781, 0.996825, 0.020919 
0.694631, -0.327781, 0.995725, 0.020962 
0.708054, -0.327781, 0.994631, 0.020950 
0.721477, -0.327781, 0.993545, 0.020885 
0.734899, -0.327781, 0.992467, 0.020767 
0.748322, -0.327781, 0.991403, 0.020595 
0.761745, -0.327781, 0.990352, 0.020371 
0.775168, -0.327781, 0.989319, 0.020094 
0.788591, -0.327781, 0.988306, 0.019765 
0.802013, -0.327781, 0.987315, 0.019385 
0.815436, -0.327781, 0.986350, 0.018956 
0.828859, -0.327781, 0.985413, 0.018477 
0.842282, -0.327781, 0.984508, 0.017950 
0.855705, -0.327781, 0.983637, 0.017377 
0.869128, -0.327781, 0.982805, 0.016760 
0.882550, -0.327781, 0.982013, 0.016101 
0.895973, -0.327781, 0.981265, 0.015403 
0.909396, -0.327781, 0.980563, 0.014669 
0.922819, -0.327781, 0.979911, 0.013901 
0.936242, -0.327781, 0.979310, 0.013104 
0.949664, -0.327781, 0.978763, 0.012282 
0.963087, -0.327781, 0.978272, 0.011439 
0.976510, -0.327781, 0.977836, 0.010578 
0.989933, -0.327781, 0.977458, 0.009706 
1.003356, -0.327781, 0.977137, 0.008827 
1.016779, -0.327781, 0.976873, 0.007944 
1.030201, -0.327781, 0.976665, 0.007064 
1.043624, -0.327781, 0.976513, 0.006190 
1.057047, -0.327781, 0.976413, 0.005326 
1.070470, -0.327781, 0.976364, 0.004477 
1.083893, -0.327781, 0.976363, 0.003646 
1.097315, -0.327781, 0.976408, 0.002836 
1.110738, -0.327781, 0.976494, 0.002050 
1.124161, -0.327781, 0.976620, 0.001290 
1.137584, -0.327781, 0.976781, 0.000558 
1.151007, -0.327781, 0.976974, -0.000144 
1.164430, -0.327781, 0.977196, -0.000815 
1.177852, -0.327781, 0.977443, -0.001456 
1.191275, -0.327781, 0.977713, -0.002065 
1.204698, -0.327781, 0.978001, -0.002642 
1.218121, -0.327781, 0.978306, -0.003188 
1.231544, -0.327781, 0.978624, -0.003704 
1.244966, -0.327781, 0.978954, -0.004189 
1.258389, -0.327781, 0.979292, -0.004645 
1.271812, -0.327781, 0.979637, -0.005073 
1.285235, -0.327781, 0.979987, -0.005473 
1.298658, -0.327781, 0.980341, -0.005847 
1.312081, -0.327781, 0.980696, -0.006196 
1.325503, -0.327781, 0.981052, -0.006522 
1.338926, -0.327781, 0.981407, -0.006824 
1.352349, -0.327781, 0.981760, -0.007105 
1.365772, -0.327781, 0.982111, -0.007365 
1.379195, -0.327781, 0.982459, -0.007606 
1.392617, -0.327781, 0.982803, -0.007829 
1.406040, -0.327781, 0.983142, -0.008034 
1.419463, -0.327781, 0.983477, -0.008224 
1.432886, -0.327781, 0.983806, -0.008398 
1.446309, -0.327781, 0.984130, -0.008558 
1.459732, -0.327781, 0.984448, -0.008704 
1.473154, -0.327781, 0.984760, -0.008838 
1.486577, -0.327781, 0.985065, -0.008960 
1.500000, -0.327781, 0.985365, -0.009071 
-0.500000, -0.322942, 0.979525, 0.003988 
-0.486577, -0.322942, 0.979161, 0.003605 
-0.473154, -0.322942, 0.978796, 0.003195 
-0.459732, -0.322942, 0.978431, 0.002756 
-0.446309, -0.322942, 0.978068, 0.002287 
-0.432886, -0.322942, 0.977708, 0.001787 
-0.419463, -0.322942, 0.977352, 0.001253 
-0.406040, -0.322942, 0.977004, 0.000684 
-0.392617, -0.322942, 0.976665, 0.000078 
-0.379195, -0.322942, 0.976337, -0.000567 
-0.365772, -0.322942, 0.976024, -0.001253 
-0.352349, -0.322942, 0.975729, -0.001980 
-0.338926, -0.322942, 0.975456, -0.002752 
-0.325503, -0.322942, 0.975207, -0.003568 
-0.312081, -0.322942, 0.974989, -0.004431 
-0.298658, -0.322942, 0.974806, -0.005341 
-0.285235, -0.322942, 0.974664, -0.006298 
-0.271812, -0.322942, 0.974568, -0.007304 
-0.258389, -0.322942, 0.974524, -0.008356 
-0.244966, -0.322942, 0.974540, -0.009454 
-0.231544, -0.322942, 0.974624, -0.010596 
-0.218121, -0.322942, 0.974782, -0.011779 
-0.204698, -0.322942, 0.975022, -0.012999 
-0.191275, -0.322942, 0.975353, -0.014251 
-0.177852, -0.322942, 0.975782, -0.015528 
-0.164430, -0.322942, 0.976318, -0.016821 
-0.151007, -0.322942, 0.976967, -0.018123 
-0.137584, -0.322942, 0.977736, -0.019421 
-0.124161, -0.322942, 0.978630, -0.020703 
-0.110738, -0.322942, 0.979652, -0.021954 
-0.097315, -0.322942, 0.980806, -0.023161 
-0.083893, -0.322942, 0.982091, -0.024306 
-0.070470, -0.322942, 0.983504, -0.025372 
-0.057047, -0.322942, 0.985041, -0.026343 
-0.043624, -0.322942, 0.986693, -0.027200 
-0.030201, -0.322942, 0.988450, -0.027929 
-0.016779, -0.322942, 0.990298, -0.028513 
-0.003356, -0.322942, 0.992222, -0.028941 
0.010067, -0.322942, 0.994203, -0.029201 
0.023490, -0.322942, 0.996222, -0.029286 
0.036913, -0.322942, 0.998257, -0.029191 
0.050336, -0.322942, 1.000288, -0.028915 
0.063758, -0.322942, 1.002293, -0.028460 
0.077181, -0.322942, 1.004252, -0.027830 
0.090604, -0.322942, 1.006145, -0.027034 
0.104027, -0.322942, 1.007956, -0.026082 
0.117450, -0.322942, 1.009669, -0.024987 
0.130872, -0.322942, 1.011271, -0.023763 
0.144295, -0.322942, 1.012752, -0.022424 
0.157718, -0.322942, 1.014105, -0.020986 
0.171141, -0.322942, 1.015323, -0.019466 
0.184564, -0.322942, 1.016403, -0.017879 
0.197987, -0.322942, 1.017345, -0.016240 
0.211409, -0.322942, 1.018148, -0.014563 
0.224832, -0.322942, 1.018816, -0.012863 
0.238255, -0.322942, 1.019351, -0.011150 
0.251678, -0.322942, 1.019757, -0.009437 
0.265101, -0.322942, 1.020041, -0.007732 
0.278523, -0.322942, 1.020208, -0.006046 
0.291946, -0.322942, 1.020264, -0.004384 
0.305369, -0.322942, 1.020215, -0.002755 
0.318792, -0.322942, 1.020069, -0.001163 
0.332215, -0.322942, 1.019830, 0.000387 
0.345638, -0.322942, 1.019506, 0.001891 
0.359060, -0.322942, 1.019103, 0.003346 
0.372483, -0.322942, 1.018626, 0.004750 
0.385906, -0.322942, 1.018081, 0.006100 
0.399329, -0.322942, 1.017473, 0.007396 
0.412752, -0.322942, 1.016806, 0.008635 
0.426174, -0.322942, 1.016087, 0.009818 
0.439597, -0.322942, 1.015318, 0.010942 
0.453020, -0.322942, 1.014505, 0.012009 
0.466443, -0.322942, 1.013650, 0.013018 
0.479866, -0.322942, 1.012758, 0.013968 
0.493289, -0.322942, 1.011832, 0.014860 
0.506711, -0.322942, 1.010875, 0.015693 
0.520134, -0.322942, 1.009890, 0.016468 
0.533557, -0.322942, 1.008881, 0.017185 
0.546980, -0.322942, 1.007849, 0.017845 
0.560403, -0.322942, 1.006798, 0.018447 
0.573826, -0.322942, 1.005729, 0.018991 
0.587248, -0.322942, 1.004647, 0.019479 
0.600671, -0.322942, 1.003551, 0.019910 
0.614094, -0.322942, 1.002447, 0.020284 
0.627517, -0.322942, 1.001334, 0.020603 
0.640940, -0.322942, 1.000216, 0.020865 
0.654362, -0.322942, 0.999094, 0.021072 
0.667785, -0.322942, 0.997971, 0.021223 
0.681208, -0.322942, 0.996850, 0.021319 
0.694631, -0.322942, 0.995731, 0.021361 
0.708054, -0.322942, 0.994617, 0.021347 
0.721477, -0.322942, 0.993511, 0.021279 
0.734899, -0.322942, 0.992414, 0.021157 
0.748322, -0.322942, 0.991330, 0.020980 
0.761745, -0.322942, 0.990261, 0.020750 
0.775168, -0.322942, 0.989208, 0.020466 
0.788591, -0.322942, 0.988176, 0.020130 
0.802013, -0.322942, 0.987167, 0.019742 
0.815436, -0.322942, 0.986184, 0.019302 
0.828859, -0.322942, 0.985230, 0.018812 
0.842282, -0.322942, 0.984307, 0.018273 
0.855705, -0.322942, 0.983420, 0.017687 
0.869128, -0.322942, 0.982572, 0.017056 
0.882550, -0.322942, 0.981765, 0.016382 
0.895973, -0.322942, 0.981003, 0.015667 
0.909396, -0.322942, 0.980289, 0.014915 
0.922819, -0.322942, 0.979626, 0.014129 
0.936242, -0.322942, 0.979015, 0.013313 
0.949664, -0.322942, 0.978459, 0.012471 
0.963087, -0.322942, 0.977960, 0.011607 
0.976510, -0.322942, 0.977520, 0.010726 
0.989933, -0.322942, 0.977138, 0.009833 
1.003356, -0.322942, 0.976815, 0.008932 
1.016779, -0.322942, 0.976551, 0.008029 
1.030201, -0.322942, 0.976345, 0.007128 